nqpoint: 2      
npath: 1      
segment_nqpoint:
- 2
labels:
- [ '$\Gamma$', 'T' ]
reciprocal_lattice:
- [   0.19580617,   0.11304874,   0.07239156 ] # a*
- [  -0.19580617,   0.11304874,   0.07239156 ] # b*
- [  -0.00000000,  -0.22609749,   0.07239156 ] # c*
natom: 10     
lattice:
- [     2.553545714317411,     1.474290305549174,     4.604588434796506 ] # a
- [    -2.553545714317412,     1.474290305549174,     4.604588434796506 ] # b
- [    -0.000000000000000,    -2.948580611098348,     4.604588434796505 ] # c
points:
- symbol: Li # 1
  coordinates: [  0.717298823011654,  0.717298823011654,  0.717298823011654 ]
  mass: 6.941000
- symbol: Li # 2
  coordinates: [  0.217298823011655,  0.217298823011655,  0.217298823011655 ]
  mass: 6.941000
- symbol: Nb # 3
  coordinates: [  0.001044025057775,  0.001044025057775,  0.001044025057775 ]
  mass: 92.906380
- symbol: Nb # 4
  coordinates: [  0.501044025057775,  0.501044025057775,  0.501044025057775 ]
  mass: 92.906380
- symbol: O  # 5
  coordinates: [  0.894456639658252,  0.630849052200324,  0.282751460071990 ]
  mass: 15.999400
- symbol: O  # 6
  coordinates: [  0.282751460071990,  0.894456639658252,  0.630849052200324 ]
  mass: 15.999400
- symbol: O  # 7
  coordinates: [  0.630849052200324,  0.282751460071990,  0.894456639658252 ]
  mass: 15.999400
- symbol: O  # 8
  coordinates: [  0.130849052200324,  0.394456639658251,  0.782751460071990 ]
  mass: 15.999400
- symbol: O  # 9
  coordinates: [  0.782751460071990,  0.130849052200324,  0.394456639658251 ]
  mass: 15.999400
- symbol: O  # 10
  coordinates: [  0.394456639658251,  0.782751460071990,  0.130849052200324 ]
  mass: 15.999400

phonon:
- q-position: [    0.0000000,    0.0000000,    0.0000000 ]
  distance:    0.0000000
  band:
  - # 1
    frequency:   -0.3316528890
    eigenvector:
    - # atom 1
      - [  0.00000000000000,  0.00000000000000 ]
      - [ -0.00000000001505,  0.00000000000000 ]
      - [  0.15332479065800,  0.00000000000000 ]
    - # atom 2
      - [  0.00000000000001,  0.00000000000000 ]
      - [ -0.00000000001505,  0.00000000000000 ]
      - [  0.15332479065800,  0.00000000000000 ]
    - # atom 3
      - [  0.00000000000005,  0.00000000000000 ]
      - [ -0.00000000005509,  0.00000000000000 ]
      - [  0.56046352532726,  0.00000000000000 ]
    - # atom 4
      - [ -0.00000000000000,  0.00000000000000 ]
      - [ -0.00000000005509,  0.00000000000000 ]
      - [  0.56046352532726,  0.00000000000000 ]
    - # atom 5
      - [  0.00011075820362,  0.00000000000000 ]
      - [ -0.00022494746583,  0.00000000000000 ]
      - [  0.23264562231087,  0.00000000000000 ]
    - # atom 6
      - [  0.00013943109836,  0.00000000000000 ]
      - [  0.00020839311662,  0.00000000000000 ]
      - [  0.23264562231087,  0.00000000000000 ]
    - # atom 7
      - [ -0.00025018930189,  0.00000000000000 ]
      - [  0.00001655428067,  0.00000000000000 ]
      - [  0.23264562231085,  0.00000000000000 ]
    - # atom 8
      - [ -0.00011075820360,  0.00000000000000 ]
      - [ -0.00022494746583,  0.00000000000000 ]
      - [  0.23264562231087,  0.00000000000000 ]
    - # atom 9
      - [  0.00025018930191,  0.00000000000000 ]
      - [  0.00001655428066,  0.00000000000000 ]
      - [  0.23264562231085,  0.00000000000000 ]
    - # atom 10
      - [ -0.00013943109834,  0.00000000000000 ]
      - [  0.00020839311662,  0.00000000000000 ]
      - [  0.23264562231087,  0.00000000000000 ]
  - # 2
    frequency:    0.0974156331
    eigenvector:
    - # atom 1
      - [ -0.15312629908427,  0.00000000000000 ]
      - [ -0.00000000000000,  0.00000000000000 ]
      - [ -0.00000000000000,  0.00000000000000 ]
    - # atom 2
      - [ -0.15312623695129,  0.00000000000000 ]
      - [ -0.00013794340312,  0.00000000000000 ]
      - [  0.00000000000000,  0.00000000000000 ]
    - # atom 3
      - [ -0.56064256089264,  0.00000000000000 ]
      - [ -0.00050934340099,  0.00000000000000 ]
      - [  0.00000000000000,  0.00000000000000 ]
    - # atom 4
      - [ -0.56064279224525,  0.00000000000000 ]
      - [  0.00000428989359,  0.00000000000000 ]
      - [ -0.00000000000000,  0.00000000000000 ]
    - # atom 5
      - [ -0.23245943891463,  0.00000000000000 ]
      - [ -0.00024752440044,  0.00000000000000 ]
      - [  0.00013215224031,  0.00000000000000 ]
    - # atom 6
      - [ -0.23254898820972,  0.00000000000000 ]
      - [ -0.00038918056512,  0.00000000000000 ]
      - [ -0.00012012580060,  0.00000000000000 ]
    - # atom 7
      - [ -0.23262689139939,  0.00000000000000 ]
      - [ -0.00024080051834,  0.00000000000000 ]
      - [ -0.00001202643971,  0.00000000000000 ]
    - # atom 8
      - [ -0.23245964860846,  0.00000000000000 ]
      - [  0.00003795951101,  0.00000000000000 ]
      - [ -0.00013209596374,  0.00000000000000 ]
    - # atom 9
      - [ -0.23262710708246,  0.00000000000000 ]
      - [  0.00003138648075,  0.00000000000000 ]
      - [  0.00001189522391,  0.00000000000000 ]
    - # atom 10
      - [ -0.23254907025664,  0.00000000000000 ]
      - [  0.00017969628844,  0.00000000000000 ]
      - [  0.00012020073983,  0.00000000000000 ]
  - # 3
    frequency:    0.0974156334
    eigenvector:
    - # atom 1
      - [  0.00000000000000,  0.00000000000000 ]
      - [ -0.15312629908427,  0.00000000000000 ]
      - [ -0.00000000001507,  0.00000000000000 ]
    - # atom 2
      - [  0.00013794340312,  0.00000000000000 ]
      - [ -0.15312623695129,  0.00000000000000 ]
      - [ -0.00000000001507,  0.00000000000000 ]
    - # atom 3
      - [  0.00050934340099,  0.00000000000000 ]
      - [ -0.56064256089264,  0.00000000000000 ]
      - [ -0.00000000005507,  0.00000000000000 ]
    - # atom 4
      - [ -0.00000428989359,  0.00000000000000 ]
      - [ -0.56064279224525,  0.00000000000000 ]
      - [ -0.00000000005507,  0.00000000000000 ]
    - # atom 5
      - [  0.00033747925548,  0.00000000000000 ]
      - [ -0.23263077343450,  0.00000000000000 ]
      - [  0.00006241117225,  0.00000000000000 ]
    - # atom 6
      - [  0.00019582309080,  0.00000000000000 ]
      - [ -0.23254122413946,  0.00000000000000 ]
      - [  0.00008324157686,  0.00000000000000 ]
    - # atom 7
      - [  0.00034420313761,  0.00000000000000 ]
      - [ -0.23246332094977,  0.00000000000000 ]
      - [ -0.00014565281769,  0.00000000000000 ]
    - # atom 8
      - [ -0.00012806867578,  0.00000000000000 ]
      - [ -0.23263090202323,  0.00000000000000 ]
      - [  0.00006253019591,  0.00000000000000 ]
    - # atom 9
      - [ -0.00013464170607,  0.00000000000000 ]
      - [ -0.23246344354925,  0.00000000000000 ]
      - [ -0.00014566359258,  0.00000000000000 ]
    - # atom 10
      - [  0.00001366810166,  0.00000000000000 ]
      - [ -0.23254148037508,  0.00000000000000 ]
      - [  0.00008313332809,  0.00000000000000 ]
  - # 4
    frequency:  148.2687509919
    eigenvector:
    - # atom 1
      - [  0.00000000000000,  0.00000000000000 ]
      - [  0.13247612094499,  0.00000000000000 ]
      - [  0.00000000000000,  0.00000000000000 ]
    - # atom 2
      - [ -0.04319572817138,  0.00000000000000 ]
      - [ -0.12523598399971,  0.00000000000000 ]
      - [ -0.00000000000000,  0.00000000000000 ]
    - # atom 3
      - [ -0.24907416975500,  0.00000000000000 ]
      - [ -0.25340703054602,  0.00000000000000 ]
      - [  0.00000000000000,  0.00000000000000 ]
    - # atom 4
      - [ -0.15283469492893,  0.00000000000000 ]
      - [  0.32077191459864,  0.00000000000000 ]
      - [  0.00000000000000,  0.00000000000000 ]
    - # atom 5
      - [  0.08414802748856,  0.00000000000000 ]
      - [ -0.23681926943513,  0.00000000000000 ]
      - [  0.27998483842613,  0.00000000000000 ]
    - # atom 6
      - [  0.15323954869161,  0.00000000000000 ]
      - [ -0.19042964523663,  0.00000000000000 ]
      - [ -0.05144740968414,  0.00000000000000 ]
    - # atom 7
      - [  0.15886838111800,  0.00000000000000 ]
      - [ -0.27345946988383,  0.00000000000000 ]
      - [ -0.22853742874199,  0.00000000000000 ]
    - # atom 8
      - [  0.15464814358648,  0.00000000000000 ]
      - [  0.16517759068403,  0.00000000000000 ]
      - [ -0.23134521889389,  0.00000000000000 ]
    - # atom 9
      - [  0.21333779133131,  0.00000000000000 ]
      - [  0.22417895323625,  0.00000000000000 ]
      - [  0.27844052181010,  0.00000000000000 ]
    - # atom 10
      - [  0.23508964628701,  0.00000000000000 ]
      - [  0.14385154607396,  0.00000000000000 ]
      - [ -0.04709530291621,  0.00000000000000 ]
  - # 5
    frequency:  148.2687509919
    eigenvector:
    - # atom 1
      - [  0.13247612094499,  0.00000000000000 ]
      - [ -0.00000000000000,  0.00000000000000 ]
      - [  0.00000000000000,  0.00000000000000 ]
    - # atom 2
      - [ -0.12523598399971,  0.00000000000000 ]
      - [  0.04319572817138,  0.00000000000000 ]
      - [  0.00000000000000,  0.00000000000000 ]
    - # atom 3
      - [ -0.25340703054602,  0.00000000000000 ]
      - [  0.24907416975500,  0.00000000000000 ]
      - [ -0.00000000000000,  0.00000000000000 ]
    - # atom 4
      - [  0.32077191459863,  0.00000000000000 ]
      - [  0.15283469492893,  0.00000000000000 ]
      - [  0.00000000000000,  0.00000000000000 ]
    - # atom 5
      - [ -0.23031965360193,  0.00000000000000 ]
      - [ -0.18002261071022,  0.00000000000000 ]
      - [  0.10224297017384,  0.00000000000000 ]
    - # atom 6
      - [ -0.27670927780043,  0.00000000000000 ]
      - [ -0.11093108950717,  0.00000000000000 ]
      - [ -0.29359546783843,  0.00000000000000 ]
    - # atom 7
      - [ -0.19367945315323,  0.00000000000000 ]
      - [ -0.10530225708078,  0.00000000000000 ]
      - [  0.19135249766459,  0.00000000000000 ]
    - # atom 8
      - [  0.19029446931212,  0.00000000000000 ]
      - [ -0.24740224388338,  0.00000000000000 ]
      - [  0.18794819603660,  0.00000000000000 ]
    - # atom 9
      - [  0.13129310675991,  0.00000000000000 ]
      - [ -0.18871259613856,  0.00000000000000 ]
      - [  0.10637673858788,  0.00000000000000 ]
    - # atom 10
      - [  0.21162051392220,  0.00000000000000 ]
      - [ -0.16696074118285,  0.00000000000000 ]
      - [ -0.29432493462448,  0.00000000000000 ]
  - # 6
    frequency:  211.6614882765
    eigenvector:
    - # atom 1
      - [  0.00000000000000,  0.00000000000000 ]
      - [  0.18312981964074,  0.00000000000000 ]
      - [ -0.00000000000001,  0.00000000000000 ]
    - # atom 2
      - [ -0.18272026220936,  0.00000000000000 ]
      - [ -0.01224077692769,  0.00000000000000 ]
      - [  0.00000000000001,  0.00000000000000 ]
    - # atom 3
      - [  0.38757786085044,  0.00000000000000 ]
      - [  0.25354032400303,  0.00000000000000 ]
      - [  0.00000000000001,  0.00000000000000 ]
    - # atom 4
      - [ -0.22706679025445,  0.00000000000000 ]
      - [ -0.40365823028957,  0.00000000000000 ]
      - [ -0.00000000000001,  0.00000000000000 ]
    - # atom 5
      - [ -0.22623219429614,  0.00000000000000 ]
      - [ -0.13693123857827,  0.00000000000000 ]
      - [  0.25541509973040,  0.00000000000000 ]
    - # atom 6
      - [ -0.12499141840769,  0.00000000000000 ]
      - [  0.21706605292017,  0.00000000000000 ]
      - [ -0.09592492796066,  0.00000000000000 ]
    - # atom 7
      - [  0.13095884095663,  0.00000000000000 ]
      - [ -0.04760967664728,  0.00000000000000 ]
      - [ -0.15949017176974,  0.00000000000000 ]
    - # atom 8
      - [ -0.17338176179886,  0.00000000000000 ]
      - [ -0.07005869702269,  0.00000000000000 ]
      - [  0.01954485992208,  0.00000000000000 ]
    - # atom 9
      - [ -0.06038457193282,  0.00000000000000 ]
      - [  0.28036306624709,  0.00000000000000 ]
      - [  0.21305326149041,  0.00000000000000 ]
    - # atom 10
      - [  0.18659098216474,  0.00000000000000 ]
      - [  0.00729374763196,  0.00000000000000 ]
      - [ -0.23259812141249,  0.00000000000000 ]
  - # 7
    frequency:  211.6614882765
    eigenvector:
    - # atom 1
      - [ -0.18312981964074,  0.00000000000000 ]
      - [  0.00000000000000,  0.00000000000000 ]
      - [ -0.00000000000000,  0.00000000000000 ]
    - # atom 2
      - [  0.01224077692769,  0.00000000000000 ]
      - [ -0.18272026220936,  0.00000000000000 ]
      - [ -0.00000000000000,  0.00000000000000 ]
    - # atom 3
      - [ -0.25354032400303,  0.00000000000000 ]
      - [  0.38757786085044,  0.00000000000000 ]
      - [ -0.00000000000000,  0.00000000000000 ]
    - # atom 4
      - [  0.40365823028957,  0.00000000000000 ]
      - [ -0.22706679025445,  0.00000000000000 ]
      - [  0.00000000000000,  0.00000000000000 ]
    - # atom 5
      - [ -0.15861466370802,  0.00000000000000 ]
      - [  0.07938901313133,  0.00000000000000 ]
      - [ -0.03669941062428,  0.00000000000000 ]
    - # atom 6
      - [  0.19538262779042,  0.00000000000000 ]
      - [ -0.02185176275711,  0.00000000000000 ]
      - [  0.23954567018880,  0.00000000000000 ]
    - # atom 7
      - [ -0.06929310177703,  0.00000000000000 ]
      - [ -0.27780202212142,  0.00000000000000 ]
      - [ -0.20284625956453,  0.00000000000000 ]
    - # atom 8
      - [ -0.21512410826027,  0.00000000000000 ]
      - [  0.14193152742090,  0.00000000000000 ]
      - [ -0.25729694588372,  0.00000000000000 ]
    - # atom 9
      - [  0.13529765500952,  0.00000000000000 ]
      - [  0.02893433755486,  0.00000000000000 ]
      - [  0.14557481814779,  0.00000000000000 ]
    - # atom 10
      - [ -0.13777166360562,  0.00000000000000 ]
      - [ -0.21804121654269,  0.00000000000000 ]
      - [  0.11172212773593,  0.00000000000000 ]
  - # 8
    frequency:  214.2871919226
    eigenvector:
    - # atom 1
      - [  0.00000000000000,  0.00000000000000 ]
      - [  0.00000000000000,  0.00000000000000 ]
      - [  0.43347692222803,  0.00000000000000 ]
    - # atom 2
      - [ -0.00000000000000,  0.00000000000000 ]
      - [ -0.00000000000000,  0.00000000000000 ]
      - [ -0.43347692222803,  0.00000000000000 ]
    - # atom 3
      - [  0.00000000000001,  0.00000000000000 ]
      - [  0.00000000000001,  0.00000000000000 ]
      - [ -0.48060226055302,  0.00000000000000 ]
    - # atom 4
      - [ -0.00000000000001,  0.00000000000000 ]
      - [ -0.00000000000001,  0.00000000000000 ]
      - [  0.48060226055302,  0.00000000000000 ]
    - # atom 5
      - [  0.16338291184544,  0.00000000000000 ]
      - [  0.01151906549741,  0.00000000000000 ]
      - [ -0.01459715483640,  0.00000000000000 ]
    - # atom 6
      - [ -0.09166725927134,  0.00000000000000 ]
      - [  0.13573421945373,  0.00000000000000 ]
      - [ -0.01459715483641,  0.00000000000000 ]
    - # atom 7
      - [ -0.07171565257411,  0.00000000000000 ]
      - [ -0.14725328495113,  0.00000000000000 ]
      - [ -0.01459715483641,  0.00000000000000 ]
    - # atom 8
      - [  0.16338291184544,  0.00000000000000 ]
      - [ -0.01151906549741,  0.00000000000000 ]
      - [  0.01459715483640,  0.00000000000000 ]
    - # atom 9
      - [ -0.07171565257411,  0.00000000000000 ]
      - [  0.14725328495114,  0.00000000000000 ]
      - [  0.01459715483641,  0.00000000000000 ]
    - # atom 10
      - [ -0.09166725927133,  0.00000000000000 ]
      - [ -0.13573421945372,  0.00000000000000 ]
      - [  0.01459715483640,  0.00000000000000 ]
  - # 9
    frequency:  239.2582552044
    eigenvector:
    - # atom 1
      - [  0.00000000000000,  0.00000000000000 ]
      - [  0.00000000000000,  0.00000000000000 ]
      - [ -0.12229473028625,  0.00000000000000 ]
    - # atom 2
      - [ -0.00000000000000,  0.00000000000000 ]
      - [  0.00000000000000,  0.00000000000000 ]
      - [ -0.12229473028625,  0.00000000000000 ]
    - # atom 3
      - [  0.00000000000000,  0.00000000000000 ]
      - [  0.00000000000000,  0.00000000000000 ]
      - [ -0.36179275860723,  0.00000000000000 ]
    - # atom 4
      - [ -0.00000000000000,  0.00000000000000 ]
      - [  0.00000000000000,  0.00000000000000 ]
      - [ -0.36179275860723,  0.00000000000000 ]
    - # atom 5
      - [  0.03215082505049,  0.00000000000000 ]
      - [ -0.12792277619128,  0.00000000000000 ]
      - [  0.31725713131142,  0.00000000000000 ]
    - # atom 6
      - [  0.09470896137903,  0.00000000000000 ]
      - [  0.09180481934200,  0.00000000000000 ]
      - [  0.31725713131141,  0.00000000000000 ]
    - # atom 7
      - [ -0.12685978642953,  0.00000000000000 ]
      - [  0.03611795684928,  0.00000000000000 ]
      - [  0.31725713131141,  0.00000000000000 ]
    - # atom 8
      - [ -0.03215082505049,  0.00000000000000 ]
      - [ -0.12792277619128,  0.00000000000000 ]
      - [  0.31725713131142,  0.00000000000000 ]
    - # atom 9
      - [  0.12685978642953,  0.00000000000000 ]
      - [  0.03611795684929,  0.00000000000000 ]
      - [  0.31725713131142,  0.00000000000000 ]
    - # atom 10
      - [ -0.09470896137903,  0.00000000000000 ]
      - [  0.09180481934200,  0.00000000000000 ]
      - [  0.31725713131141,  0.00000000000000 ]
  - # 10
    frequency:  257.5981283716
    eigenvector:
    - # atom 1
      - [ -0.00000000000001,  0.00000000000000 ]
      - [ -0.08256170187634,  0.00000000000000 ]
      - [  0.00000000000000,  0.00000000000000 ]
    - # atom 2
      - [ -0.00343191870991,  0.00000000000000 ]
      - [ -0.08249034216614,  0.00000000000000 ]
      - [  0.00000000000000,  0.00000000000000 ]
    - # atom 3
      - [  0.02609092959664,  0.00000000000000 ]
      - [ -0.18885845302501,  0.00000000000000 ]
      - [ -0.00000000000000,  0.00000000000000 ]
    - # atom 4
      - [ -0.03391883288109,  0.00000000000000 ]
      - [ -0.18761067310311,  0.00000000000000 ]
      - [ -0.00000000000000,  0.00000000000000 ]
    - # atom 5
      - [ -0.07861660583407,  0.00000000000000 ]
      - [  0.26644077225535,  0.00000000000000 ]
      - [ -0.29396413274126,  0.00000000000000 ]
    - # atom 6
      - [ -0.11570577190290,  0.00000000000000 ]
      - [  0.05710094198095,  0.00000000000000 ]
      - [ -0.09618716000250,  0.00000000000000 ]
    - # atom 7
      - [ -0.27845479991004,  0.00000000000000 ]
      - [  0.19389101713893,  0.00000000000000 ]
      - [  0.39015129274377,  0.00000000000000 ]
    - # atom 8
      - [  0.08181233596511,  0.00000000000000 ]
      - [  0.25637683367368,  0.00000000000000 ]
      - [ -0.28203829404678,  0.00000000000000 ]
    - # atom 9
      - [  0.28449354878987,  0.00000000000000 ]
      - [  0.19219664399743,  0.00000000000000 ]
      - [  0.39456057692596,  0.00000000000000 ]
    - # atom 10
      - [  0.12757126769816,  0.00000000000000 ]
      - [  0.04875965965948,  0.00000000000000 ]
      - [ -0.11252228287918,  0.00000000000000 ]
  - # 11
    frequency:  257.5981283716
    eigenvector:
    - # atom 1
      - [ -0.08256170187634,  0.00000000000000 ]
      - [  0.00000000000001,  0.00000000000000 ]
      - [ -0.00000000000000,  0.00000000000000 ]
    - # atom 2
      - [ -0.08249034216614,  0.00000000000000 ]
      - [  0.00343191870991,  0.00000000000000 ]
      - [ -0.00000000000000,  0.00000000000000 ]
    - # atom 3
      - [ -0.18885845302501,  0.00000000000000 ]
      - [ -0.02609092959664,  0.00000000000000 ]
      - [ -0.00000000000000,  0.00000000000000 ]
    - # atom 4
      - [ -0.18761067310311,  0.00000000000000 ]
      - [  0.03391883288109,  0.00000000000000 ]
      - [  0.00000000000000,  0.00000000000000 ]
    - # atom 5
      - [  0.07851438199481,  0.00000000000000 ]
      - [  0.23656817926393,  0.00000000000000 ]
      - [ -0.28078763661033,  0.00000000000000 ]
    - # atom 6
      - [  0.28785421226920,  0.00000000000000 ]
      - [  0.19947901319511,  0.00000000000000 ]
      - [  0.39497422506056,  0.00000000000000 ]
    - # atom 7
      - [  0.15106413711122,  0.00000000000000 ]
      - [  0.03672998518797,  0.00000000000000 ]
      - [ -0.11418658845023,  0.00000000000000 ]
    - # atom 8
      - [  0.07517859121338,  0.00000000000000 ]
      - [ -0.24743909900365,  0.00000000000000 ]
      - [  0.29276442560994,  0.00000000000000 ]
    - # atom 9
      - [  0.13935878088962,  0.00000000000000 ]
      - [ -0.04475788617889,  0.00000000000000 ]
      - [  0.09787011467957,  0.00000000000000 ]
    - # atom 10
      - [  0.28279576522758,  0.00000000000000 ]
      - [ -0.20168016727060,  0.00000000000000 ]
      - [ -0.39063454028950,  0.00000000000000 ]
  - # 12
    frequency:  286.1658779122
    eigenvector:
    - # atom 1
      - [ -0.00000000000000,  0.00000000000000 ]
      - [ -0.00000000000000,  0.00000000000000 ]
      - [  0.67703512485497,  0.00000000000000 ]
    - # atom 2
      - [  0.00000000000000,  0.00000000000000 ]
      - [ -0.00000000000000,  0.00000000000000 ]
      - [  0.67703512485498,  0.00000000000000 ]
    - # atom 3
      - [ -0.00000000000000,  0.00000000000000 ]
      - [  0.00000000000000,  0.00000000000000 ]
      - [ -0.20091393063642,  0.00000000000000 ]
    - # atom 4
      - [  0.00000000000000,  0.00000000000000 ]
      - [  0.00000000000000,  0.00000000000000 ]
      - [ -0.20091393063642,  0.00000000000000 ]
    - # atom 5
      - [  0.01377139625164,  0.00000000000000 ]
      - [  0.00838999185104,  0.00000000000000 ]
      - [  0.01260822793375,  0.00000000000000 ]
    - # atom 6
      - [ -0.01415164420637,  0.00000000000000 ]
      - [  0.00773138307398,  0.00000000000000 ]
      - [  0.01260822793375,  0.00000000000000 ]
    - # atom 7
      - [  0.00038024795473,  0.00000000000000 ]
      - [ -0.01612137492503,  0.00000000000000 ]
      - [  0.01260822793375,  0.00000000000000 ]
    - # atom 8
      - [ -0.01377139625164,  0.00000000000000 ]
      - [  0.00838999185105,  0.00000000000000 ]
      - [  0.01260822793375,  0.00000000000000 ]
    - # atom 9
      - [ -0.00038024795473,  0.00000000000000 ]
      - [ -0.01612137492502,  0.00000000000000 ]
      - [  0.01260822793375,  0.00000000000000 ]
    - # atom 10
      - [  0.01415164420637,  0.00000000000000 ]
      - [  0.00773138307398,  0.00000000000000 ]
      - [  0.01260822793375,  0.00000000000000 ]
  - # 13
    frequency:  293.5116568156
    eigenvector:
    - # atom 1
      - [ -0.00000000000000,  0.00000000000000 ]
      - [  0.00000000000000,  0.00000000000000 ]
      - [ -0.44617303498624,  0.00000000000000 ]
    - # atom 2
      - [ -0.00000000000000,  0.00000000000000 ]
      - [  0.00000000000000,  0.00000000000000 ]
      - [  0.44617303498622,  0.00000000000000 ]
    - # atom 3
      - [  0.00000000000000,  0.00000000000000 ]
      - [ -0.00000000000000,  0.00000000000000 ]
      - [ -0.19998138059583,  0.00000000000000 ]
    - # atom 4
      - [  0.00000000000000,  0.00000000000000 ]
      - [  0.00000000000000,  0.00000000000000 ]
      - [  0.19998138059584,  0.00000000000000 ]
    - # atom 5
      - [  0.22054009150943,  0.00000000000000 ]
      - [ -0.09726284731723,  0.00000000000000 ]
      - [  0.16994419669649,  0.00000000000000 ]
    - # atom 6
      - [ -0.02603794913359,  0.00000000000000 ]
      - [  0.23962474545872,  0.00000000000000 ]
      - [  0.16994419669648,  0.00000000000000 ]
    - # atom 7
      - [ -0.19450214237584,  0.00000000000000 ]
      - [ -0.14236189814150,  0.00000000000000 ]
      - [  0.16994419669648,  0.00000000000000 ]
    - # atom 8
      - [  0.22054009150943,  0.00000000000000 ]
      - [  0.09726284731723,  0.00000000000000 ]
      - [ -0.16994419669648,  0.00000000000000 ]
    - # atom 9
      - [ -0.19450214237584,  0.00000000000000 ]
      - [  0.14236189814150,  0.00000000000000 ]
      - [ -0.16994419669649,  0.00000000000000 ]
    - # atom 10
      - [ -0.02603794913359,  0.00000000000000 ]
      - [ -0.23962474545872,  0.00000000000000 ]
      - [ -0.16994419669648,  0.00000000000000 ]
  - # 14
    frequency:  334.0297512650
    eigenvector:
    - # atom 1
      - [  0.00000000000000,  0.00000000000000 ]
      - [ -0.36664482030770,  0.00000000000000 ]
      - [  0.00000000000000,  0.00000000000000 ]
    - # atom 2
      - [ -0.34780063995382,  0.00000000000000 ]
      - [  0.11603076792893,  0.00000000000000 ]
      - [ -0.00000000000000,  0.00000000000000 ]
    - # atom 3
      - [  0.38555132721274,  0.00000000000000 ]
      - [ -0.13856175142640,  0.00000000000000 ]
      - [  0.00000000000000,  0.00000000000000 ]
    - # atom 4
      - [ -0.00942615047394,  0.00000000000000 ]
      - [  0.40958556195391,  0.00000000000000 ]
      - [ -0.00000000000000,  0.00000000000000 ]
    - # atom 5
      - [ -0.24679906721456,  0.00000000000000 ]
      - [ -0.14871230650120,  0.00000000000000 ]
      - [ -0.15978474315780,  0.00000000000000 ]
    - # atom 6
      - [ -0.03042715124112,  0.00000000000000 ]
      - [  0.03495397283895,  0.00000000000000 ]
      - [  0.16406651885471,  0.00000000000000 ]
    - # atom 7
      - [  0.02044655449929,  0.00000000000000 ]
      - [ -0.24426274272964,  0.00000000000000 ]
      - [ -0.00428177569691,  0.00000000000000 ]
    - # atom 8
      - [ -0.16344798270072,  0.00000000000000 ]
      - [  0.11878886575766,  0.00000000000000 ]
      - [ -0.04163392052049,  0.00000000000000 ]
    - # atom 9
      - [  0.01176577738270,  0.00000000000000 ]
      - [ -0.10448282180281,  0.00000000000000 ]
      - [  0.17872080022521,  0.00000000000000 ]
    - # atom 10
      - [ -0.26920005603219,  0.00000000000000 ]
      - [ -0.14458654534740,  0.00000000000000 ]
      - [ -0.13708687970472,  0.00000000000000 ]
  - # 15
    frequency:  334.0297512650
    eigenvector:
    - # atom 1
      - [  0.36664482030771,  0.00000000000000 ]
      - [  0.00000000000000,  0.00000000000000 ]
      - [ -0.00000000000000,  0.00000000000000 ]
    - # atom 2
      - [ -0.11603076792893,  0.00000000000000 ]
      - [ -0.34780063995383,  0.00000000000000 ]
      - [ -0.00000000000000,  0.00000000000000 ]
    - # atom 3
      - [  0.13856175142640,  0.00000000000000 ]
      - [  0.38555132721274,  0.00000000000000 ]
      - [  0.00000000000000,  0.00000000000000 ]
    - # atom 4
      - [ -0.40958556195390,  0.00000000000000 ]
      - [ -0.00942615047394,  0.00000000000000 ]
      - [ -0.00000000000000,  0.00000000000000 ]
    - # atom 5
      - [  0.08996841109339,  0.00000000000000 ]
      - [  0.07561262457697,  0.00000000000000 ]
      - [ -0.09719593317699,  0.00000000000000 ]
    - # atom 6
      - [  0.27363469043354,  0.00000000000000 ]
      - [ -0.14075929139647,  0.00000000000000 ]
      - [ -0.08977968012333,  0.00000000000000 ]
    - # atom 7
      - [ -0.00558202513505,  0.00000000000000 ]
      - [ -0.19163299713689,  0.00000000000000 ]
      - [  0.18697561330032,  0.00000000000000 ]
    - # atom 8
      - [  0.20564253335269,  0.00000000000000 ]
      - [ -0.11714019153276,  0.00000000000000 ]
      - [ -0.18233164901970,  0.00000000000000 ]
    - # atom 9
      - [ -0.01762915420778,  0.00000000000000 ]
      - [ -0.29235395161617,  0.00000000000000 ]
      - [  0.05510979167996,  0.00000000000000 ]
    - # atom 10
      - [ -0.05773287775237,  0.00000000000000 ]
      - [ -0.01138811820128,  0.00000000000000 ]
      - [  0.12722185733974,  0.00000000000000 ]
  - # 16
    frequency:  357.3800543166
    eigenvector:
    - # atom 1
      - [  0.00000000000000,  0.00000000000000 ]
      - [ -0.00000000000000,  0.00000000000000 ]
      - [  0.02974240472700,  0.00000000000000 ]
    - # atom 2
      - [ -0.00000000000000,  0.00000000000000 ]
      - [ -0.00000000000000,  0.00000000000000 ]
      - [  0.02974240472700,  0.00000000000000 ]
    - # atom 3
      - [  0.00000000000000,  0.00000000000000 ]
      - [ -0.00000000000000,  0.00000000000000 ]
      - [  0.00277762872500,  0.00000000000000 ]
    - # atom 4
      - [  0.00000000000000,  0.00000000000000 ]
      - [  0.00000000000000,  0.00000000000000 ]
      - [  0.00277762872500,  0.00000000000000 ]
    - # atom 5
      - [ -0.38625530929888,  0.00000000000000 ]
      - [ -0.13076792228006,  0.00000000000000 ]
      - [ -0.00870696584503,  0.00000000000000 ]
    - # atom 6
      - [  0.30637599734408,  0.00000000000000 ]
      - [ -0.26912294905942,  0.00000000000000 ]
      - [ -0.00870696584503,  0.00000000000000 ]
    - # atom 7
      - [  0.07987931195480,  0.00000000000000 ]
      - [  0.39989087133947,  0.00000000000000 ]
      - [ -0.00870696584503,  0.00000000000000 ]
    - # atom 8
      - [  0.38625530929888,  0.00000000000000 ]
      - [ -0.13076792228006,  0.00000000000000 ]
      - [ -0.00870696584503,  0.00000000000000 ]
    - # atom 9
      - [ -0.07987931195480,  0.00000000000000 ]
      - [  0.39989087133947,  0.00000000000000 ]
      - [ -0.00870696584503,  0.00000000000000 ]
    - # atom 10
      - [ -0.30637599734408,  0.00000000000000 ]
      - [ -0.26912294905942,  0.00000000000000 ]
      - [ -0.00870696584503,  0.00000000000000 ]
  - # 17
    frequency:  380.5303257663
    eigenvector:
    - # atom 1
      - [  0.60785115779334,  0.00000000000000 ]
      - [ -0.00000000000002,  0.00000000000000 ]
      - [  0.00000000000000,  0.00000000000000 ]
    - # atom 2
      - [  0.46661108141269,  0.00000000000000 ]
      - [ -0.38956017344383,  0.00000000000000 ]
      - [ -0.00000000000000,  0.00000000000000 ]
    - # atom 3
      - [ -0.05465037004881,  0.00000000000000 ]
      - [ -0.11519522400297,  0.00000000000000 ]
      - [ -0.00000000000000,  0.00000000000000 ]
    - # atom 4
      - [  0.03187458463476,  0.00000000000000 ]
      - [  0.12345287940719,  0.00000000000000 ]
      - [ -0.00000000000000,  0.00000000000000 ]
    - # atom 5
      - [ -0.16747840192036,  0.00000000000000 ]
      - [ -0.04572027243460,  0.00000000000000 ]
      - [ -0.01985708738519,  0.00000000000000 ]
    - # atom 6
      - [ -0.15794217600416,  0.00000000000000 ]
      - [  0.15949657028386,  0.00000000000000 ]
      - [  0.13352962187210,  0.00000000000000 ]
    - # atom 7
      - [  0.01501271011636,  0.00000000000000 ]
      - [  0.04862953502497,  0.00000000000000 ]
      - [ -0.11367253448691,  0.00000000000000 ]
    - # atom 8
      - [ -0.22725295494406,  0.00000000000000 ]
      - [  0.06038599834873,  0.00000000000000 ]
      - [  0.10671104834033,  0.00000000000000 ]
    - # atom 9